HEADER
"PSFversion" "1.00"
"design" "(\"ee315_project\" \"project_final\" \"schematic\" \"\")"
"simulator" "spectre"
"temperature" "27"
"host" ""
"date" "Nov 27 23:02:19 2017"
"title" ""
"analysisList" "()"
END
