HEADER
"PSFversion" "1.00"
"design" "(\"ee315_project\" \"dac_tb\" \"schematic\" \"\")"
"simulator" "spectre"
"temperature" "27"
"host" ""
"date" "Nov 25 23:08:29 2017"
"title" ""
"analysisList" "()"
END
