HEADER
"PSFversion" "1.00"
"I7n" "_sub6"
"I6n" "_sub7"
"DVDDv" ":1v"
"GNDv" ":2v"
"INv" ":3v"
"OUTv" ":4v"
"[@bulk_n:%:gnd!]v" ":5v"
