HEADER
"PSFversion" "1.00"
"I3n I2n I1n I0n" "INVD1"
"DVDDv" ":1v"
"GNDv" ":2v"
"INv" ":3v"
"OUTv" ":4v"
"[@bulk_n:%:gnd!]v" ":5v"
