HEADER
"PSFversion" "1.00"
"C18n C17n C16n C15n C14n C13n C12n C11n C10n C8n C7n C6n C5n C4n C3n C2n C1n C0n" "ee315_cap_spectre"
"NA<8>v" ":1v"
"NA<7>v" ":2v"
"NA<6>v" ":3v"
"NA<5>v" ":4v"
"NA<4>v" ":5v"
"NA<3>v" ":6v"
"NA<2>v" ":7v"
"NA<1>v" ":8v"
"NA<0>v" ":9v"
"NB<8>v" ":10v"
"NB<7>v" ":11v"
"NB<6>v" ":12v"
"NB<5>v" ":13v"
"NB<4>v" ":14v"
"NB<3>v" ":15v"
"NB<2>v" ":16v"
"NB<1>v" ":17v"
"NB<0>v" ":18v"
"TOPv" ":19v"
