HEADER
"PSFversion" "1.00"
"I59n I62n I65n I64n I61n I57n I66n I60n I63n" "INV_DAC_SWITCHES"
"DVDDv" ":1v"
"GNDv" ":2v"
"NA<8>v" ":3v"
"NA<7>v" ":4v"
"NA<6>v" ":5v"
"NA<5>v" ":6v"
"NA<4>v" ":7v"
"NA<3>v" ":8v"
"NA<2>v" ":9v"
"NA<1>v" ":10v"
"NA<0>v" ":11v"
"VREFv" ":12v"
"con<1>v" ":13v"
"con<2>v" ":14v"
"con<3>v" ":15v"
"con<4>v" ":16v"
"con<5>v" ":17v"
"con<6>v" ":18v"
"con<7>v" ":19v"
"con<8>v" ":20v"
"con<9>v" ":21v"
"[@bulk_n:%:gnd!]v" ":22v"
