HEADER
"PSFversion" "1.00"
"I28n I27n I26n I25n I24n I23n I22n I21n" "INVD1"
"I17n I16n I15n I14n I13n I12n I11n I10n I9n I8n I7n I6n I5n I4n I3n I2n I1n" "switch_ideal"
"DVDDv" ":1v"
"GNDv" ":2v"
"NB<8>v" ":3v"
"NB<7>v" ":4v"
"NB<6>v" ":5v"
"NB<5>v" ":6v"
"NB<4>v" ":7v"
"NB<3>v" ":8v"
"NB<2>v" ":9v"
"NB<1>v" ":10v"
"NB<0>v" ":11v"
"VREFv" ":12v"
"con<2>v" ":13v"
"con<3>v" ":14v"
"con<4>v" ":15v"
"con<5>v" ":16v"
"con<6>v" ":17v"
"con<7>v" ":18v"
"con<8>v" ":19v"
"con<9>v" ":20v"
"[@bulk_n:%:gnd!]v" ":21v"
