HEADER
"PSFversion" "1.00"
"I54n I48n I56n I50n I51n I49n I55n I53n I52n" "INV_DAC_SWITCHES"
"DVDDv" ":1v"
"GNDv" ":2v"
"NB<8>v" ":3v"
"NB<7>v" ":4v"
"NB<6>v" ":5v"
"NB<5>v" ":6v"
"NB<4>v" ":7v"
"NB<3>v" ":8v"
"NB<2>v" ":9v"
"NB<1>v" ":10v"
"NB<0>v" ":11v"
"VREFv" ":12v"
"con<2>v" ":13v"
"con<3>v" ":14v"
"con<4>v" ":15v"
"con<5>v" ":16v"
"con<6>v" ":17v"
"con<7>v" ":18v"
"con<8>v" ":19v"
"con<9>v" ":20v"
"[@bulk_n:%:gnd!]v" ":21v"
