HEADER
"PSFversion" "1.00"
"I86<0>n I86<1>n I86<2>n I86<3>n I86<4>n I86<5>n I86<6>n I86<7>n I86<8>n I86<9>n I87<0>n I87<1>n I87<2>n I87<3>n I87<4>n I87<5>n I87<6>n I87<7>n I87<8>n I87<9>n" "_sub8"
"I90n" "dac_switches_real_top_A"
"I80<0>n I80<1>n I80<2>n I80<3>n I80<4>n I80<5>n I80<6>n I80<7>n I80<8>n I80<9>n I81<0>n I81<1>n I81<2>n I81<3>n I81<4>n I81<5>n I81<6>n I81<7>n I81<8>n I81<9>n" "_sub11"
"V2n V7n V1n V0n" "ee315_vdc_spectre"
"V6n" "ee315_vsin_spectre"
"V10n V8n V4n V12n V13n V15n V11n V14n V9n V3n" "ee315_vpulse_spectre"
"I69n I44n" "ideal_balun"
"I64n" "clk_gen"
"I60n I43n" "ideal_TH"
"I6<0>n I6<1>n I6<2>n I6<3>n I6<4>n I6<5>n I6<6>n I6<7>n I6<8>n I6<9>n I5<0>n I5<1>n I5<2>n I5<3>n I5<4>n I5<5>n I5<6>n I5<7>n I5<8>n I5<9>n" "BUFFD1"
"I77<0>n I77<1>n I77<2>n I77<3>n I77<4>n I77<5>n I77<6>n I77<7>n I77<8>n I77<9>n I4<0>n I4<1>n I4<2>n I4<3>n I4<4>n I4<5>n I4<6>n I4<7>n I4<8>n I4<9>n" "INVD1_schematic"
"I92n" "dac_switches_real_bot_A"
"I93n" "dac_switches_real_bot_B"
"I68n I72n" "dac_switches_A"
"I63n I61n I58n I66n" "cap_DAC"
"I71n I73n" "dac_switches_B"
"I91n" "dac_switches_real_top_B"
