HEADER
"PSFversion" "1.00"
"P+v" ":t1v"
"P-v" ":b1v"
"S+v" ":t2v"
"S-v" ":b2v"
