HEADER
"PSFversion" "1.00"
"K0n K1n" "ee315_xfmr_spectre"
"dv" ":1v"
"cv" ":2v"
"pv" ":3v"
"nv" ":4v"
