HEADER
"PSFversion" "1.00"
"outv" "\:outv"
"in1v" "\:in1v"
"in2v" "\:in2v"
