HEADER
"PSFversion" "1.00"
"C1n C0n" "ee315_cap_spectre"
"R2n R1n R0n" "ee315_res_spectre"
"p1switchn" "ee315_switch_spectre"
"clkv" ":1v"
"s1v" ":2v"
"s2v" ":3v"
