HEADER
"PSFversion" "1.00"
"simulator" "spectre"
"version" "10.1.1.260.isr16"
"date" "11:06:09 PM, Sat Nov 25, 2017"
"design" "// Generated for: spectre"
"analysis type" "info"
"analysis name" "designParamVals"
"analysis description" "Circuit Information"
"xVecSorted" "unsorted"
"tolerance.relative" 0.00100000
TYPE
"top-level" STRUCT(
"temp" FLOAT DOUBLE
"tnom" FLOAT DOUBLE
"time" FLOAT DOUBLE
"amp" FLOAT DOUBLE
"dc_in" FLOAT DOUBLE
"fs" FLOAT DOUBLE
"vcm" FLOAT DOUBLE
"vdd" FLOAT DOUBLE
"vl" FLOAT DOUBLE
"vref" FLOAT DOUBLE
"wu" FLOAT DOUBLE
"pn_a" FLOAT DOUBLE
"pn_b" FLOAT DOUBLE
"wu_sample" FLOAT DOUBLE
"wu_top_n" FLOAT DOUBLE
"wu_bot_p" FLOAT DOUBLE
"vh" FLOAT DOUBLE
"fin" FLOAT DOUBLE
"tbit" FLOAT DOUBLE
"tper" FLOAT DOUBLE
"tsample" FLOAT DOUBLE
) PROP(
"key" "parameters"
)
VALUE
"top-level" "top-level" (
2.700000000000000e+01
2.700000000000000e+01
0.000000000000000e+00
0.000000000000000e+00
0.000000000000000e+00
5.000000000000000e+07
6.000000000000000e-01
1.200000000000000e+00
0.000000000000000e+00
6.000000000000000e-01
1.585833333333330e-06
2.000000000000000e+00
2.000000000000000e+00
1.800000000000000e-07
1.800000000000000e-07
1.800000000000000e-07
1.200000000000000e+00
2.343750000000000e+06
1.666666666666667e-09
2.000000000000000e-08
2.500000000000000e-09
)
END
