HEADER
"PSFversion" "1.00"
"design" "(\"ee315_project\" \"hw_comparator_testbench\" \"schematic\" \"\")"
"simulator" "spectre"
"temperature" "27"
"host" ""
"date" "Nov 20 21:23:13 2017"
"title" ""
"analysisList" "()"
END
