HEADER
"PSFversion" "1.00"
"Time Stamp" "Nov  6 00:32:27 2017"
TYPE
"variable" STRUCT(
"value" FLOAT DOUBLE
) PROP( "key" "element" )
VALUE
"vid" "variable" ( 100e-6 ) PROP( )
"vdd" "variable" ( 1.2 ) PROP( )
"vcm" "variable" ( 600e-3 ) PROP( )
"Cu" "variable" ( 2.5e-15 ) PROP( )
"temp" "variable" ( 27 ) PROP( )
END
