HEADER
"PSFversion" "1.00"
"design" "(\"ee315_project\" \"project_final\" \"schematic\" \"\")"
"simulator" "spectre"
"temperature" "27"
"host" ""
"date" "Nov 28 01:51:43 2017"
"title" ""
"analysisList" "()"
END
