HEADER
"PSFversion" "1.00"
"design" "(\"Project_Lib2\" \"project_starter\" \"schematic\" \"\")"
"simulator" "spectre"
"temperature" "27"
"host" ""
"date" "Nov  8 15:39:33 2017"
"title" ""
"analysisList" "()"
END
